t 0.0320626 /NodeList/29/DeviceList/0/$ns3::WifiNetDevice/Phy/State/Tx ErpOfdmRate54Mbps ns3::WifiMacHeader (DATA ToDS=0, FromDS=0, MoreFrag=0, Retry=0, MoreData=0 Duration/ID=0us, DA=ff:ff:ff:ff:ff:ff, SA=00:00:00:00:00:1e, BSSID=00:00:00:00:00:1e, FragNumber=0, SeqNumber=0) ns3::LlcSnapHeader (type 0x800) ns3::Ipv4Header (tos 0x0 DSCP Default ECN Not-ECT ttl 1 id 0 protocol 17 offset (bytes) 0 flags [none] length: 48 10.1.1.30 > 10.1.1.255) ns3::UdpHeader (length: 28 698 > 698) ns3::olsr::PacketHeader () ns3::olsr::MessageHeader () ns3::WifiMacTrailer ()
r 0.0321053 ErpOfdmRate54Mbps/NodeList/23/DeviceList/0/$ns3::WifiNetDevice/Phy/State/RxOk ns3::WifiMacHeader (DATA ToDS=0, FromDS=0, MoreFrag=0, Retry=0, MoreData=0 Duration/ID=0us, DA=ff:ff:ff:ff:ff:ff, SA=00:00:00:00:00:1e, BSSID=00:00:00:00:00:1e, FragNumber=0, SeqNumber=0) ns3::LlcSnapHeader (type 0x800) ns3::Ipv4Header (tos 0x0 DSCP Default ECN Not-ECT ttl 1 id 0 protocol 17 offset (bytes) 0 flags [none] length: 48 10.1.1.30 > 10.1.1.255) ns3::UdpHeader (length: 28 698 > 698) ns3::olsr::PacketHeader () ns3::olsr::MessageHeader () ns3::WifiMacTrailer ()
r 0.0321053 ErpOfdmRate54Mbps/NodeList/28/DeviceList/0/$ns3::WifiNetDevice/Phy/State/RxOk ns3::WifiMacHeader (DATA ToDS=0, FromDS=0, MoreFrag=0, Retry=0, MoreData=0 Duration/ID=0us, DA=ff:ff:ff:ff:ff:ff, SA=00:00:00:00:00:1e, BSSID=00:00:00:00:00:1e, FragNumber=0, SeqNumber=0) ns3::LlcSnapHeader (type 0x800) ns3::Ipv4Header (tos 0x0 DSCP Default ECN Not-ECT ttl 1 id 0 protocol 17 offset (bytes) 0 flags [none] length: 48 10.1.1.30 > 10.1.1.255) ns3::UdpHeader (length: 28 698 > 698) ns3::olsr::PacketHeader () ns3::olsr::MessageHeader () ns3::WifiMacTrailer ()
r 0.0321053 ErpOfdmRate54Mbps/NodeList/35/DeviceList/0/$ns3::WifiNetDevice/Phy/State/RxOk ns3::WifiMacHeader (DATA ToDS=0, FromDS=0, MoreFrag=0, Retry=0, MoreData=0 Duration/ID=0us, DA=ff:ff:ff:ff:ff:ff, SA=00:00:00:00:00:1e, BSSID=00:00:00:00:00:1e, FragNumber=0, SeqNumber=0) ns3::LlcSnapHeader (type 0x800) ns3::Ipv4Header (tos 0x0 DSCP Default ECN Not-ECT ttl 1 id 0 protocol 17 offset (bytes) 0 flags [none] length: 48 10.1.1.30 > 10.1.1.255) ns3::UdpHeader (length: 28 698 > 698) ns3::olsr::PacketHeader () ns3::olsr::MessageHeader () ns3::WifiMacTrailer ()
t 0.136615 /NodeList/11/DeviceList/0/$ns3::WifiNetDevice/Phy/State/Tx ErpOfdmRate54Mbps ns3::WifiMacHeader (DATA ToDS=0, FromDS=0, MoreFrag=0, Retry=0, MoreData=0 Duration/ID=0us, DA=ff:ff:ff:ff:ff:ff, SA=00:00:00:00:00:0c, BSSID=00:00:00:00:00:0c, FragNumber=0, SeqNumber=0) ns3::LlcSnapHeader (type 0x800) ns3::Ipv4Header (tos 0x0 DSCP Default ECN Not-ECT ttl 1 id 0 protocol 17 offset (bytes) 0 flags [none] length: 48 10.1.1.12 > 10.1.1.255) ns3::UdpHeader (length: 28 698 > 698) ns3::olsr::PacketHeader () ns3::olsr::MessageHeader () ns3::WifiMacTrailer ()
r 0.136658 ErpOfdmRate54Mbps/NodeList/5/DeviceList/0/$ns3::WifiNetDevice/Phy/State/RxOk ns3::WifiMacHeader (DATA ToDS=0, FromDS=0, MoreFrag=0, Retry=0, MoreData=0 Duration/ID=0us, DA=ff:ff:ff:ff:ff:ff, SA=00:00:00:00:00:0c, BSSID=00:00:00:00:00:0c, FragNumber=0, SeqNumber=0) ns3::LlcSnapHeader (type 0x800) ns3::Ipv4Header (tos 0x0 DSCP Default ECN Not-ECT ttl 1 id 0 protocol 17 offset (bytes) 0 flags [none] length: 48 10.1.1.12 > 10.1.1.255) ns3::UdpHeader (length: 28 698 > 698) ns3::olsr::PacketHeader () ns3::olsr::MessageHeader () ns3::WifiMacTrailer ()
r 0.136658 ErpOfdmRate54Mbps/NodeList/10/DeviceList/0/$ns3::WifiNetDevice/Phy/State/RxOk ns3::WifiMacHeader (DATA ToDS=0, FromDS=0, MoreFrag=0, Retry=0, MoreData=0 Duration/ID=0us, DA=ff:ff:ff:ff:ff:ff, SA=00:00:00:00:00:0c, BSSID=00:00:00:00:00:0c, FragNumber=0, SeqNumber=0) ns3::LlcSnapHeader (type 0x800) ns3::Ipv4Header (tos 0x0 DSCP Default ECN Not-ECT ttl 1 id 0 protocol 17 offset (bytes) 0 flags [none] length: 48 10.1.1.12 > 10.1.1.255) ns3::UdpHeader (length: 28 698 > 698) ns3::olsr::PacketHeader () ns3::olsr::MessageHeader () ns3::WifiMacTrailer ()
r 0.136658 ErpOfdmRate54Mbps/NodeList/17/DeviceList/0/$ns3::WifiNetDevice/Phy/State/RxOk ns3::WifiMacHeader (DATA ToDS=0, FromDS=0, MoreFrag=0, Retry=0, MoreData=0 Duration/ID=0us, DA=ff:ff:ff:ff:ff:ff, SA=00:00:00:00:00:0c, BSSID=00:00:00:00:00:0c, FragNumber=0, SeqNumber=0) ns3::LlcSnapHeader (type 0x800) ns3::Ipv4Header (tos 0x0 DSCP Default ECN Not-ECT ttl 1 id 0 protocol 17 offset (bytes) 0 flags [none] length: 48 10.1.1.12 > 10.1.1.255) ns3::UdpHeader (length: 28 698 > 698) ns3::olsr::PacketHeader () ns3::olsr::MessageHeader () ns3::WifiMacTrailer ()
t 0.240209 /NodeList/15/DeviceList/0/$ns3::WifiNetDevice/Phy/State/Tx ErpOfdmRate54Mbps ns3::WifiMacHeader (DATA ToDS=0, FromDS=0, MoreFrag=0, Retry=0, MoreData=0 Duration/ID=0us, DA=ff:ff:ff:ff:ff:ff, SA=00:00:00:00:00:10, BSSID=00:00:00:00:00:10, FragNumber=0, SeqNumber=0) ns3::LlcSnapHeader (type 0x800) ns3::Ipv4Header (tos 0x0 DSCP Default ECN Not-ECT ttl 1 id 0 protocol 17 offset (bytes) 0 flags [none] length: 48 10.1.1.16 > 10.1.1.255) ns3::UdpHeader (length: 28 698 > 698) ns3::olsr::PacketHeader () ns3::olsr::MessageHeader () ns3::WifiMacTrailer ()
r 0.240252 ErpOfdmRate54Mbps/NodeList/9/DeviceList/0/$ns3::WifiNetDevice/Phy/State/RxOk ns3::WifiMacHeader (DATA ToDS=0, FromDS=0, MoreFrag=0, Retry=0, MoreData=0 Duration/ID=0us, DA=ff:ff:ff:ff:ff:ff, SA=00:00:00:00:00:10, BSSID=00:00:00:00:00:10, FragNumber=0, SeqNumber=0) ns3::LlcSnapHeader (type 0x800) ns3::Ipv4Header (tos 0x0 DSCP Default ECN Not-ECT ttl 1 id 0 protocol 17 offset (bytes) 0 flags [none] length: 48 10.1.1.16 > 10.1.1.255) ns3::UdpHeader (length: 28 698 > 698) ns3::olsr::PacketHeader () ns3::olsr::MessageHeader () ns3::WifiMacTrailer ()
r 0.240252 ErpOfdmRate54Mbps/NodeList/14/DeviceList/0/$ns3::WifiNetDevice/Phy/State/RxOk ns3::WifiMacHeader (DATA ToDS=0, FromDS=0, MoreFrag=0, Retry=0, MoreData=0 Duration/ID=0us, DA=ff:ff:ff:ff:ff:ff, SA=00:00:00:00:00:10, BSSID=00:00:00:00:00:10, FragNumber=0, SeqNumber=0) ns3::LlcSnapHeader (type 0x800) ns3::Ipv4Header (tos 0x0 DSCP Default ECN Not-ECT ttl 1 id 0 protocol 17 offset (bytes) 0 flags [none] length: 48 10.1.1.16 > 10.1.1.255) ns3::UdpHeader (length: 28 698 > 698) ns3::olsr::PacketHeader () ns3::olsr::MessageHeader () ns3::WifiMacTrailer ()
r 0.240252 ErpOfdmRate54Mbps/NodeList/16/DeviceList/0/$ns3::WifiNetDevice/Phy/State/RxOk ns3::WifiMacHeader (DATA ToDS=0, FromDS=0, MoreFrag=0, Retry=0, MoreData=0 Duration/ID=0us, DA=ff:ff:ff:ff:ff:ff, SA=00:00:00:00:00:10, BSSID=00:00:00:00:00:10, FragNumber=0, SeqNumber=0) ns3::LlcSnapHeader (type 0x800) ns3::Ipv4Header (tos 0x0 DSCP Default ECN Not-ECT ttl 1 id 0 protocol 17 offset (bytes) 0 flags [none] length: 48 10.1.1.16 > 10.1.1.255) ns3::UdpHeader (length: 28 698 > 698) ns3::olsr::PacketHeader () ns3::olsr::MessageHeader () ns3::WifiMacTrailer ()
r 0.240252 ErpOfdmRate54Mbps/NodeList/21/DeviceList/0/$ns3::WifiNetDevice/Phy/State/RxOk ns3::WifiMacHeader (DATA ToDS=0, FromDS=0, MoreFrag=0, Retry=0, MoreData=0 Duration/ID=0us, DA=ff:ff:ff:ff:ff:ff, SA=00:00:00:00:00:10, BSSID=00:00:00:00:00:10, FragNumber=0, SeqNumber=0) ns3::LlcSnapHeader (type 0x800) ns3::Ipv4Header (tos 0x0 DSCP Default ECN Not-ECT ttl 1 id 0 protocol 17 offset (bytes) 0 flags [none] length: 48 10.1.1.16 > 10.1.1.255) ns3::UdpHeader (length: 28 698 > 698) ns3::olsr::PacketHeader () ns3::olsr::MessageHeader () ns3::WifiMacTrailer ()
t 0.36185 /NodeList/3/DeviceList/0/$ns3::WifiNetDevice/Phy/State/Tx ErpOfdmRate54Mbps ns3::WifiMacHeader (DATA ToDS=0, FromDS=0, MoreFrag=0, Retry=0, MoreData=0 Duration/ID=0us, DA=ff:ff:ff:ff:ff:ff, SA=00:00:00:00:00:04, BSSID=00:00:00:00:00:04, FragNumber=0, SeqNumber=0) ns3::LlcSnapHeader (type 0x800) ns3::Ipv4Header (tos 0x0 DSCP Default ECN Not-ECT ttl 1 id 0 protocol 17 offset (bytes) 0 flags [none] length: 48 10.1.1.4 > 10.1.1.255) ns3::UdpHeader (length: 28 698 > 698) ns3::olsr::PacketHeader () ns3::olsr::MessageHeader () ns3::WifiMacTrailer ()
r 0.361893 ErpOfdmRate54Mbps/NodeList/2/DeviceList/0/$ns3::WifiNetDevice/Phy/State/RxOk ns3::WifiMacHeader (DATA ToDS=0, FromDS=0, MoreFrag=0, Retry=0, MoreData=0 Duration/ID=0us, DA=ff:ff:ff:ff:ff:ff, SA=00:00:00:00:00:04, BSSID=00:00:00:00:00:04, FragNumber=0, SeqNumber=0) ns3::LlcSnapHeader (type 0x800) ns3::Ipv4Header (tos 0x0 DSCP Default ECN Not-ECT ttl 1 id 0 protocol 17 offset (bytes) 0 flags [none] length: 48 10.1.1.4 > 10.1.1.255) ns3::UdpHeader (length: 28 698 > 698) ns3::olsr::PacketHeader () ns3::olsr::MessageHeader () ns3::WifiMacTrailer ()
r 0.361893 ErpOfdmRate54Mbps/NodeList/4/DeviceList/0/$ns3::WifiNetDevice/Phy/State/RxOk ns3::WifiMacHeader (DATA ToDS=0, FromDS=0, MoreFrag=0, Retry=0, MoreData=0 Duration/ID=0us, DA=ff:ff:ff:ff:ff:ff, SA=00:00:00:00:00:04, BSSID=00:00:00:00:00:04, FragNumber=0, SeqNumber=0) ns3::LlcSnapHeader (type 0x800) ns3::Ipv4Header (tos 0x0 DSCP Default ECN Not-ECT ttl 1 id 0 protocol 17 offset (bytes) 0 flags [none] length: 48 10.1.1.4 > 10.1.1.255) ns3::UdpHeader (length: 28 698 > 698) ns3::olsr::PacketHeader () ns3::olsr::MessageHeader () ns3::WifiMacTrailer ()
r 0.361893 ErpOfdmRate54Mbps/NodeList/9/DeviceList/0/$ns3::WifiNetDevice/Phy/State/RxOk ns3::WifiMacHeader (DATA ToDS=0, FromDS=0, MoreFrag=0, Retry=0, MoreData=0 Duration/ID=0us, DA=ff:ff:ff:ff:ff:ff, SA=00:00:00:00:00:04, BSSID=00:00:00:00:00:04, FragNumber=0, SeqNumber=0) ns3::LlcSnapHeader (type 0x800) ns3::Ipv4Header (tos 0x0 DSCP Default ECN Not-ECT ttl 1 id 0 protocol 17 offset (bytes) 0 flags [none] length: 48 10.1.1.4 > 10.1.1.255) ns3::UdpHeader (length: 28 698 > 698) ns3::olsr::PacketHeader () ns3::olsr::MessageHeader () ns3::WifiMacTrailer ()
t 0.447018 /NodeList/27/DeviceList/0/$ns3::WifiNetDevice/Phy/State/Tx ErpOfdmRate54Mbps ns3::WifiMacHeader (DATA ToDS=0, FromDS=0, MoreFrag=0, Retry=0, MoreData=0 Duration/ID=0us, DA=ff:ff:ff:ff:ff:ff, SA=00:00:00:00:00:1c, BSSID=00:00:00:00:00:1c, FragNumber=0, SeqNumber=0) ns3::LlcSnapHeader (type 0x800) ns3::Ipv4Header (tos 0x0 DSCP Default ECN Not-ECT ttl 1 id 0 protocol 17 offset (bytes) 0 flags [none] length: 48 10.1.1.28 > 10.1.1.255) ns3::UdpHeader (length: 28 698 > 698) ns3::olsr::PacketHeader () ns3::olsr::MessageHeader () ns3::WifiMacTrailer ()
r 0.447061 ErpOfdmRate54Mbps/NodeList/21/DeviceList/0/$ns3::WifiNetDevice/Phy/State/RxOk ns3::WifiMacHeader (DATA ToDS=0, FromDS=0, MoreFrag=0, Retry=0, MoreData=0 Duration/ID=0us, DA=ff:ff:ff:ff:ff:ff, SA=00:00:00:00:00:1c, BSSID=00:00:00:00:00:1c, FragNumber=0, SeqNumber=0) ns3::LlcSnapHeader (type 0x800) ns3::Ipv4Header (tos 0x0 DSCP Default ECN Not-ECT ttl 1 id 0 protocol 17 offset (bytes) 0 flags [none] length: 48 10.1.1.28 > 10.1.1.255) ns3::UdpHeader (length: 28 698 > 698) ns3::olsr::PacketHeader () ns3::olsr::MessageHeader () ns3::WifiMacTrailer ()
r 0.447061 ErpOfdmRate54Mbps/NodeList/26/DeviceList/0/$ns3::WifiNetDevice/Phy/State/RxOk ns3::WifiMacHeader (DATA ToDS=0, FromDS=0, MoreFrag=0, Retry=0, MoreData=0 Duration/ID=0us, DA=ff:ff:ff:ff:ff:ff, SA=00:00:00:00:00:1c, BSSID=00:00:00:00:00:1c, FragNumber=0, SeqNumber=0) ns3::LlcSnapHeader (type 0x800) ns3::Ipv4Header (tos 0x0 DSCP Default ECN Not-ECT ttl 1 id 0 protocol 17 offset (bytes) 0 flags [none] length: 48 10.1.1.28 > 10.1.1.255) ns3::UdpHeader (length: 28 698 > 698) ns3::olsr::PacketHeader () ns3::olsr::MessageHeader () ns3::WifiMacTrailer ()
r 0.447061 ErpOfdmRate54Mbps/NodeList/28/DeviceList/0/$ns3::WifiNetDevice/Phy/State/RxOk ns3::WifiMacHeader (DATA ToDS=0, FromDS=0, MoreFrag=0, Retry=0, MoreData=0 Duration/ID=0us, DA=ff:ff:ff:ff:ff:ff, SA=00:00:00:00:00:1c, BSSID=00:00:00:00:00:1c, FragNumber=0, SeqNumber=0) ns3::LlcSnapHeader (type 0x800) ns3::Ipv4Header (tos 0x0 DSCP Default ECN Not-ECT ttl 1 id 0 protocol 17 offset (bytes) 0 flags [none] length: 48 10.1.1.28 > 10.1.1.255) ns3::UdpHeader (length: 28 698 > 698) ns3::olsr::PacketHeader () ns3::olsr::MessageHeader () ns3::WifiMacTrailer ()
r 0.447061 ErpOfdmRate54Mbps/NodeList/33/DeviceList/0/$ns3::WifiNetDevice/Phy/State/RxOk ns3::WifiMacHeader (DATA ToDS=0, FromDS=0, MoreFrag=0, Retry=0, MoreData=0 Duration/ID=0us, DA=ff:ff:ff:ff:ff:ff, SA=00:00:00:00:00:1c, BSSID=00:00:00:00:00:1c, FragNumber=0, SeqNumber=0) ns3::LlcSnapHeader (type 0x800) ns3::Ipv4Header (tos 0x0 DSCP Default ECN Not-ECT ttl 1 id 0 protocol 17 offset (bytes) 0 flags [none] length: 48 10.1.1.28 > 10.1.1.255) ns3::UdpHeader (length: 28 698 > 698) ns3::olsr::PacketHeader () ns3::olsr::MessageHeader () ns3::WifiMacTrailer ()
t 0.608414 /NodeList/7/DeviceList/0/$ns3::WifiNetDevice/Phy/State/Tx ErpOfdmRate54Mbps ns3::WifiMacHeader (DATA ToDS=0, FromDS=0, MoreFrag=0, Retry=0, MoreData=0 Duration/ID=0us, DA=ff:ff:ff:ff:ff:ff, SA=00:00:00:00:00:08, BSSID=00:00:00:00:00:08, FragNumber=0, SeqNumber=0) ns3::LlcSnapHeader (type 0x800) ns3::Ipv4Header (tos 0x0 DSCP Default ECN Not-ECT ttl 1 id 0 protocol 17 offset (bytes) 0 flags [none] length: 48 10.1.1.8 > 10.1.1.255) ns3::UdpHeader (length: 28 698 > 698) ns3::olsr::PacketHeader () ns3::olsr::MessageHeader () ns3::WifiMacTrailer ()
r 0.608456 ErpOfdmRate54Mbps/NodeList/1/DeviceList/0/$ns3::WifiNetDevice/Phy/State/RxOk ns3::WifiMacHeader (DATA ToDS=0, FromDS=0, MoreFrag=0, Retry=0, MoreData=0 Duration/ID=0us, DA=ff:ff:ff:ff:ff:ff, SA=00:00:00:00:00:08, BSSID=00:00:00:00:00:08, FragNumber=0, SeqNumber=0) ns3::LlcSnapHeader (type 0x800) ns3::Ipv4Header (tos 0x0 DSCP Default ECN Not-ECT ttl 1 id 0 protocol 17 offset (bytes) 0 flags [none] length: 48 10.1.1.8 > 10.1.1.255) ns3::UdpHeader (length: 28 698 > 698) ns3::olsr::PacketHeader () ns3::olsr::MessageHeader () ns3::WifiMacTrailer ()
r 0.608456 ErpOfdmRate54Mbps/NodeList/6/DeviceList/0/$ns3::WifiNetDevice/Phy/State/RxOk ns3::WifiMacHeader (DATA ToDS=0, FromDS=0, MoreFrag=0, Retry=0, MoreData=0 Duration/ID=0us, DA=ff:ff:ff:ff:ff:ff, SA=00:00:00:00:00:08, BSSID=00:00:00:00:00:08, FragNumber=0, SeqNumber=0) ns3::LlcSnapHeader (type 0x800) ns3::Ipv4Header (tos 0x0 DSCP Default ECN Not-ECT ttl 1 id 0 protocol 17 offset (bytes) 0 flags [none] length: 48 10.1.1.8 > 10.1.1.255) ns3::UdpHeader (length: 28 698 > 698) ns3::olsr::PacketHeader () ns3::olsr::MessageHeader () ns3::WifiMacTrailer ()
r 0.608456 ErpOfdmRate54Mbps/NodeList/8/DeviceList/0/$ns3::WifiNetDevice/Phy/State/RxOk ns3::WifiMacHeader (DATA ToDS=0, FromDS=0, MoreFrag=0, Retry=0, MoreData=0 Duration/ID=0us, DA=ff:ff:ff:ff:ff:ff, SA=00:00:00:00:00:08, BSSID=00:00:00:00:00:08, FragNumber=0, SeqNumber=0) ns3::LlcSnapHeader (type 0x800) ns3::Ipv4Header (tos 0x0 DSCP Default ECN Not-ECT ttl 1 id 0 protocol 17 offset (bytes) 0 flags [none] length: 48 10.1.1.8 > 10.1.1.255) ns3::UdpHeader (length: 28 698 > 698) ns3::olsr::PacketHeader () ns3::olsr::MessageHeader () ns3::WifiMacTrailer ()
r 0.608456 ErpOfdmRate54Mbps/NodeList/13/DeviceList/0/$ns3::WifiNetDevice/Phy/State/RxOk ns3::WifiMacHeader (DATA ToDS=0, FromDS=0, MoreFrag=0, Retry=0, MoreData=0 Duration/ID=0us, DA=ff:ff:ff:ff:ff:ff, SA=00:00:00:00:00:08, BSSID=00:00:00:00:00:08, FragNumber=0, SeqNumber=0) ns3::LlcSnapHeader (type 0x800) ns3::Ipv4Header (tos 0x0 DSCP Default ECN Not-ECT ttl 1 id 0 protocol 17 offset (bytes) 0 flags [none] length: 48 10.1.1.8 > 10.1.1.255) ns3::UdpHeader (length: 28 698 > 698) ns3::olsr::PacketHeader () ns3::olsr::MessageHeader () ns3::WifiMacTrailer ()
t 0.689046 /NodeList/10/DeviceList/0/$ns3::WifiNetDevice/Phy/State/Tx ErpOfdmRate54Mbps ns3::WifiMacHeader (DATA ToDS=0, FromDS=0, MoreFrag=0, Retry=0, MoreData=0 Duration/ID=0us, DA=ff:ff:ff:ff:ff:ff, SA=00:00:00:00:00:0b, BSSID=00:00:00:00:00:0b, FragNumber=0, SeqNumber=0) ns3::LlcSnapHeader (type 0x800) ns3::Ipv4Header (tos 0x0 DSCP Default ECN Not-ECT ttl 1 id 0 protocol 17 offset (bytes) 0 flags [none] length: 48 10.1.1.11 > 10.1.1.255) ns3::UdpHeader (length: 28 698 > 698) ns3::olsr::PacketHeader () ns3::olsr::MessageHeader () ns3::WifiMacTrailer ()
r 0.689089 ErpOfdmRate54Mbps/NodeList/4/DeviceList/0/$ns3::WifiNetDevice/Phy/State/RxOk ns3::WifiMacHeader (DATA ToDS=0, FromDS=0, MoreFrag=0, Retry=0, MoreData=0 Duration/ID=0us, DA=ff:ff:ff:ff:ff:ff, SA=00:00:00:00:00:0b, BSSID=00:00:00:00:00:0b, FragNumber=0, SeqNumber=0) ns3::LlcSnapHeader (type 0x800) ns3::Ipv4Header (tos 0x0 DSCP Default ECN Not-ECT ttl 1 id 0 protocol 17 offset (bytes) 0 flags [none] length: 48 10.1.1.11 > 10.1.1.255) ns3::UdpHeader (length: 28 698 > 698) ns3::olsr::PacketHeader () ns3::olsr::MessageHeader () ns3::WifiMacTrailer ()
r 0.689089 ErpOfdmRate54Mbps/NodeList/9/DeviceList/0/$ns3::WifiNetDevice/Phy/State/RxOk ns3::WifiMacHeader (DATA ToDS=0, FromDS=0, MoreFrag=0, Retry=0, MoreData=0 Duration/ID=0us, DA=ff:ff:ff:ff:ff:ff, SA=00:00:00:00:00:0b, BSSID=00:00:00:00:00:0b, FragNumber=0, SeqNumber=0) ns3::LlcSnapHeader (type 0x800) ns3::Ipv4Header (tos 0x0 DSCP Default ECN Not-ECT ttl 1 id 0 protocol 17 offset (bytes) 0 flags [none] length: 48 10.1.1.11 > 10.1.1.255) ns3::UdpHeader (length: 28 698 > 698) ns3::olsr::PacketHeader () ns3::olsr::MessageHeader () ns3::WifiMacTrailer ()
r 0.689089 ErpOfdmRate54Mbps/NodeList/11/DeviceList/0/$ns3::WifiNetDevice/Phy/State/RxOk ns3::WifiMacHeader (DATA ToDS=0, FromDS=0, MoreFrag=0, Retry=0, MoreData=0 Duration/ID=0us, DA=ff:ff:ff:ff:ff:ff, SA=00:00:00:00:00:0b, BSSID=00:00:00:00:00:0b, FragNumber=0, SeqNumber=0) ns3::LlcSnapHeader (type 0x800) ns3::Ipv4Header (tos 0x0 DSCP Default ECN Not-ECT ttl 1 id 0 protocol 17 offset (bytes) 0 flags [none] length: 48 10.1.1.11 > 10.1.1.255) ns3::UdpHeader (length: 28 698 > 698) ns3::olsr::PacketHeader () ns3::olsr::MessageHeader () ns3::WifiMacTrailer ()
r 0.689089 ErpOfdmRate54Mbps/NodeList/16/DeviceList/0/$ns3::WifiNetDevice/Phy/State/RxOk ns3::WifiMacHeader (DATA ToDS=0, FromDS=0, MoreFrag=0, Retry=0, MoreData=0 Duration/ID=0us, DA=ff:ff:ff:ff:ff:ff, SA=00:00:00:00:00:0b, BSSID=00:00:00:00:00:0b, FragNumber=0, SeqNumber=0) ns3::LlcSnapHeader (type 0x800) ns3::Ipv4Header (tos 0x0 DSCP Default ECN Not-ECT ttl 1 id 0 protocol 17 offset (bytes) 0 flags [none] length: 48 10.1.1.11 > 10.1.1.255) ns3::UdpHeader (length: 28 698 > 698) ns3::olsr::PacketHeader () ns3::olsr::MessageHeader () ns3::WifiMacTrailer ()
t 0.785639 /NodeList/8/DeviceList/0/$ns3::WifiNetDevice/Phy/State/Tx ErpOfdmRate54Mbps ns3::WifiMacHeader (DATA ToDS=0, FromDS=0, MoreFrag=0, Retry=0, MoreData=0 Duration/ID=0us, DA=ff:ff:ff:ff:ff:ff, SA=00:00:00:00:00:09, BSSID=00:00:00:00:00:09, FragNumber=0, SeqNumber=0) ns3::LlcSnapHeader (type 0x800) ns3::Ipv4Header (tos 0x0 DSCP Default ECN Not-ECT ttl 1 id 0 protocol 17 offset (bytes) 0 flags [none] length: 48 10.1.1.9 > 10.1.1.255) ns3::UdpHeader (length: 28 698 > 698) ns3::olsr::PacketHeader () ns3::olsr::MessageHeader () ns3::WifiMacTrailer ()
r 0.785682 ErpOfdmRate54Mbps/NodeList/2/DeviceList/0/$ns3::WifiNetDevice/Phy/State/RxOk ns3::WifiMacHeader (DATA ToDS=0, FromDS=0, MoreFrag=0, Retry=0, MoreData=0 Duration/ID=0us, DA=ff:ff:ff:ff:ff:ff, SA=00:00:00:00:00:09, BSSID=00:00:00:00:00:09, FragNumber=0, SeqNumber=0) ns3::LlcSnapHeader (type 0x800) ns3::Ipv4Header (tos 0x0 DSCP Default ECN Not-ECT ttl 1 id 0 protocol 17 offset (bytes) 0 flags [none] length: 48 10.1.1.9 > 10.1.1.255) ns3::UdpHeader (length: 28 698 > 698) ns3::olsr::PacketHeader () ns3::olsr::MessageHeader () ns3::WifiMacTrailer ()
r 0.785682 ErpOfdmRate54Mbps/NodeList/7/DeviceList/0/$ns3::WifiNetDevice/Phy/State/RxOk ns3::WifiMacHeader (DATA ToDS=0, FromDS=0, MoreFrag=0, Retry=0, MoreData=0 Duration/ID=0us, DA=ff:ff:ff:ff:ff:ff, SA=00:00:00:00:00:09, BSSID=00:00:00:00:00:09, FragNumber=0, SeqNumber=0) ns3::LlcSnapHeader (type 0x800) ns3::Ipv4Header (tos 0x0 DSCP Default ECN Not-ECT ttl 1 id 0 protocol 17 offset (bytes) 0 flags [none] length: 48 10.1.1.9 > 10.1.1.255) ns3::UdpHeader (length: 28 698 > 698) ns3::olsr::PacketHeader () ns3::olsr::MessageHeader () ns3::WifiMacTrailer ()
r 0.785682 ErpOfdmRate54Mbps/NodeList/9/DeviceList/0/$ns3::WifiNetDevice/Phy/State/RxOk ns3::WifiMacHeader (DATA ToDS=0, FromDS=0, MoreFrag=0, Retry=0, MoreData=0 Duration/ID=0us, DA=ff:ff:ff:ff:ff:ff, SA=00:00:00:00:00:09, BSSID=00:00:00:00:00:09, FragNumber=0, SeqNumber=0) ns3::LlcSnapHeader (type 0x800) ns3::Ipv4Header (tos 0x0 DSCP Default ECN Not-ECT ttl 1 id 0 protocol 17 offset (bytes) 0 flags [none] length: 48 10.1.1.9 > 10.1.1.255) ns3::UdpHeader (length: 28 698 > 698) ns3::olsr::PacketHeader () ns3::olsr::MessageHeader () ns3::WifiMacTrailer ()
r 0.785682 ErpOfdmRate54Mbps/NodeList/14/DeviceList/0/$ns3::WifiNetDevice/Phy/State/RxOk ns3::WifiMacHeader (DATA ToDS=0, FromDS=0, MoreFrag=0, Retry=0, MoreData=0 Duration/ID=0us, DA=ff:ff:ff:ff:ff:ff, SA=00:00:00:00:00:09, BSSID=00:00:00:00:00:09, FragNumber=0, SeqNumber=0) ns3::LlcSnapHeader (type 0x800) ns3::Ipv4Header (tos 0x0 DSCP Default ECN Not-ECT ttl 1 id 0 protocol 17 offset (bytes) 0 flags [none] length: 48 10.1.1.9 > 10.1.1.255) ns3::UdpHeader (length: 28 698 > 698) ns3::olsr::PacketHeader () ns3::olsr::MessageHeader () ns3::WifiMacTrailer ()
t 0.798698 /NodeList/25/DeviceList/0/$ns3::WifiNetDevice/Phy/State/Tx ErpOfdmRate54Mbps ns3::WifiMacHeader (DATA ToDS=0, FromDS=0, MoreFrag=0, Retry=0, MoreData=0 Duration/ID=0us, DA=ff:ff:ff:ff:ff:ff, SA=00:00:00:00:00:1a, BSSID=00:00:00:00:00:1a, FragNumber=0, SeqNumber=0) ns3::LlcSnapHeader (type 0x800) ns3::Ipv4Header (tos 0x0 DSCP Default ECN Not-ECT ttl 1 id 0 protocol 17 offset (bytes) 0 flags [none] length: 48 10.1.1.26 > 10.1.1.255) ns3::UdpHeader (length: 28 698 > 698) ns3::olsr::PacketHeader () ns3::olsr::MessageHeader () ns3::WifiMacTrailer ()
r 0.798741 ErpOfdmRate54Mbps/NodeList/19/DeviceList/0/$ns3::WifiNetDevice/Phy/State/RxOk ns3::WifiMacHeader (DATA ToDS=0, FromDS=0, MoreFrag=0, Retry=0, MoreData=0 Duration/ID=0us, DA=ff:ff:ff:ff:ff:ff, SA=00:00:00:00:00:1a, BSSID=00:00:00:00:00:1a, FragNumber=0, SeqNumber=0) ns3::LlcSnapHeader (type 0x800) ns3::Ipv4Header (tos 0x0 DSCP Default ECN Not-ECT ttl 1 id 0 protocol 17 offset (bytes) 0 flags [none] length: 48 10.1.1.26 > 10.1.1.255) ns3::UdpHeader (length: 28 698 > 698) ns3::olsr::PacketHeader () ns3::olsr::MessageHeader () ns3::WifiMacTrailer ()
r 0.798741 ErpOfdmRate54Mbps/NodeList/24/DeviceList/0/$ns3::WifiNetDevice/Phy/State/RxOk ns3::WifiMacHeader (DATA ToDS=0, FromDS=0, MoreFrag=0, Retry=0, MoreData=0 Duration/ID=0us, DA=ff:ff:ff:ff:ff:ff, SA=00:00:00:00:00:1a, BSSID=00:00:00:00:00:1a, FragNumber=0, SeqNumber=0) ns3::LlcSnapHeader (type 0x800) ns3::Ipv4Header (tos 0x0 DSCP Default ECN Not-ECT ttl 1 id 0 protocol 17 offset (bytes) 0 flags [none] length: 48 10.1.1.26 > 10.1.1.255) ns3::UdpHeader (length: 28 698 > 698) ns3::olsr::PacketHeader () ns3::olsr::MessageHeader () ns3::WifiMacTrailer ()
r 0.798741 ErpOfdmRate54Mbps/NodeList/26/DeviceList/0/$ns3::WifiNetDevice/Phy/State/RxOk ns3::WifiMacHeader (DATA ToDS=0, FromDS=0, MoreFrag=0, Retry=0, MoreData=0 Duration/ID=0us, DA=ff:ff:ff:ff:ff:ff, SA=00:00:00:00:00:1a, BSSID=00:00:00:00:00:1a, FragNumber=0, SeqNumber=0) ns3::LlcSnapHeader (type 0x800) ns3::Ipv4Header (tos 0x0 DSCP Default ECN Not-ECT ttl 1 id 0 protocol 17 offset (bytes) 0 flags [none] length: 48 10.1.1.26 > 10.1.1.255) ns3::UdpHeader (length: 28 698 > 698) ns3::olsr::PacketHeader () ns3::olsr::MessageHeader () ns3::WifiMacTrailer ()
r 0.798741 ErpOfdmRate54Mbps/NodeList/31/DeviceList/0/$ns3::WifiNetDevice/Phy/State/RxOk ns3::WifiMacHeader (DATA ToDS=0, FromDS=0, MoreFrag=0, Retry=0, MoreData=0 Duration/ID=0us, DA=ff:ff:ff:ff:ff:ff, SA=00:00:00:00:00:1a, BSSID=00:00:00:00:00:1a, FragNumber=0, SeqNumber=0) ns3::LlcSnapHeader (type 0x800) ns3::Ipv4Header (tos 0x0 DSCP Default ECN Not-ECT ttl 1 id 0 protocol 17 offset (bytes) 0 flags [none] length: 48 10.1.1.26 > 10.1.1.255) ns3::UdpHeader (length: 28 698 > 698) ns3::olsr::PacketHeader () ns3::olsr::MessageHeader () ns3::WifiMacTrailer ()
t 0.860028 /NodeList/1/DeviceList/0/$ns3::WifiNetDevice/Phy/State/Tx ErpOfdmRate54Mbps ns3::WifiMacHeader (DATA ToDS=0, FromDS=0, MoreFrag=0, Retry=0, MoreData=0 Duration/ID=0us, DA=ff:ff:ff:ff:ff:ff, SA=00:00:00:00:00:02, BSSID=00:00:00:00:00:02, FragNumber=0, SeqNumber=0) ns3::LlcSnapHeader (type 0x800) ns3::Ipv4Header (tos 0x0 DSCP Default ECN Not-ECT ttl 1 id 0 protocol 17 offset (bytes) 0 flags [none] length: 48 10.1.1.2 > 10.1.1.255) ns3::UdpHeader (length: 28 698 > 698) ns3::olsr::PacketHeader () ns3::olsr::MessageHeader () ns3::WifiMacTrailer ()
r 0.860071 ErpOfdmRate54Mbps/NodeList/0/DeviceList/0/$ns3::WifiNetDevice/Phy/State/RxOk ns3::WifiMacHeader (DATA ToDS=0, FromDS=0, MoreFrag=0, Retry=0, MoreData=0 Duration/ID=0us, DA=ff:ff:ff:ff:ff:ff, SA=00:00:00:00:00:02, BSSID=00:00:00:00:00:02, FragNumber=0, SeqNumber=0) ns3::LlcSnapHeader (type 0x800) ns3::Ipv4Header (tos 0x0 DSCP Default ECN Not-ECT ttl 1 id 0 protocol 17 offset (bytes) 0 flags [none] length: 48 10.1.1.2 > 10.1.1.255) ns3::UdpHeader (length: 28 698 > 698) ns3::olsr::PacketHeader () ns3::olsr::MessageHeader () ns3::WifiMacTrailer ()
r 0.860071 ErpOfdmRate54Mbps/NodeList/2/DeviceList/0/$ns3::WifiNetDevice/Phy/State/RxOk ns3::WifiMacHeader (DATA ToDS=0, FromDS=0, MoreFrag=0, Retry=0, MoreData=0 Duration/ID=0us, DA=ff:ff:ff:ff:ff:ff, SA=00:00:00:00:00:02, BSSID=00:00:00:00:00:02, FragNumber=0, SeqNumber=0) ns3::LlcSnapHeader (type 0x800) ns3::Ipv4Header (tos 0x0 DSCP Default ECN Not-ECT ttl 1 id 0 protocol 17 offset (bytes) 0 flags [none] length: 48 10.1.1.2 > 10.1.1.255) ns3::UdpHeader (length: 28 698 > 698) ns3::olsr::PacketHeader () ns3::olsr::MessageHeader () ns3::WifiMacTrailer ()
r 0.860071 ErpOfdmRate54Mbps/NodeList/7/DeviceList/0/$ns3::WifiNetDevice/Phy/State/RxOk ns3::WifiMacHeader (DATA ToDS=0, FromDS=0, MoreFrag=0, Retry=0, MoreData=0 Duration/ID=0us, DA=ff:ff:ff:ff:ff:ff, SA=00:00:00:00:00:02, BSSID=00:00:00:00:00:02, FragNumber=0, SeqNumber=0) ns3::LlcSnapHeader (type 0x800) ns3::Ipv4Header (tos 0x0 DSCP Default ECN Not-ECT ttl 1 id 0 protocol 17 offset (bytes) 0 flags [none] length: 48 10.1.1.2 > 10.1.1.255) ns3::UdpHeader (length: 28 698 > 698) ns3::olsr::PacketHeader () ns3::olsr::MessageHeader () ns3::WifiMacTrailer ()
t 1.01533 /NodeList/34/DeviceList/0/$ns3::WifiNetDevice/Phy/State/Tx ErpOfdmRate54Mbps ns3::WifiMacHeader (DATA ToDS=0, FromDS=0, MoreFrag=0, Retry=0, MoreData=0 Duration/ID=0us, DA=ff:ff:ff:ff:ff:ff, SA=00:00:00:00:00:23, BSSID=00:00:00:00:00:23, FragNumber=0, SeqNumber=0) ns3::LlcSnapHeader (type 0x800) ns3::Ipv4Header (tos 0x0 DSCP Default ECN Not-ECT ttl 1 id 0 protocol 17 offset (bytes) 0 flags [none] length: 48 10.1.1.35 > 10.1.1.255) ns3::UdpHeader (length: 28 698 > 698) ns3::olsr::PacketHeader () ns3::olsr::MessageHeader () ns3::WifiMacTrailer ()
r 1.01537 ErpOfdmRate54Mbps/NodeList/28/DeviceList/0/$ns3::WifiNetDevice/Phy/State/RxOk ns3::WifiMacHeader (DATA ToDS=0, FromDS=0, MoreFrag=0, Retry=0, MoreData=0 Duration/ID=0us, DA=ff:ff:ff:ff:ff:ff, SA=00:00:00:00:00:23, BSSID=00:00:00:00:00:23, FragNumber=0, SeqNumber=0) ns3::LlcSnapHeader (type 0x800) ns3::Ipv4Header (tos 0x0 DSCP Default ECN Not-ECT ttl 1 id 0 protocol 17 offset (bytes) 0 flags [none] length: 48 10.1.1.35 > 10.1.1.255) ns3::UdpHeader (length: 28 698 > 698) ns3::olsr::PacketHeader () ns3::olsr::MessageHeader () ns3::WifiMacTrailer ()
r 1.01537 ErpOfdmRate54Mbps/NodeList/33/DeviceList/0/$ns3::WifiNetDevice/Phy/State/RxOk ns3::WifiMacHeader (DATA ToDS=0, FromDS=0, MoreFrag=0, Retry=0, MoreData=0 Duration/ID=0us, DA=ff:ff:ff:ff:ff:ff, SA=00:00:00:00:00:23, BSSID=00:00:00:00:00:23, FragNumber=0, SeqNumber=0) ns3::LlcSnapHeader (type 0x800) ns3::Ipv4Header (tos 0x0 DSCP Default ECN Not-ECT ttl 1 id 0 protocol 17 offset (bytes) 0 flags [none] length: 48 10.1.1.35 > 10.1.1.255) ns3::UdpHeader (length: 28 698 > 698) ns3::olsr::PacketHeader () ns3::olsr::MessageHeader () ns3::WifiMacTrailer ()
r 1.01537 ErpOfdmRate54Mbps/NodeList/35/DeviceList/0/$ns3::WifiNetDevice/Phy/State/RxOk ns3::WifiMacHeader (DATA ToDS=0, FromDS=0, MoreFrag=0, Retry=0, MoreData=0 Duration/ID=0us, DA=ff:ff:ff:ff:ff:ff, SA=00:00:00:00:00:23, BSSID=00:00:00:00:00:23, FragNumber=0, SeqNumber=0) ns3::LlcSnapHeader (type 0x800) ns3::Ipv4Header (tos 0x0 DSCP Default ECN Not-ECT ttl 1 id 0 protocol 17 offset (bytes) 0 flags [none] length: 48 10.1.1.35 > 10.1.1.255) ns3::UdpHeader (length: 28 698 > 698) ns3::olsr::PacketHeader () ns3::olsr::MessageHeader () ns3::WifiMacTrailer ()
t 1.20027 /NodeList/16/DeviceList/0/$ns3::WifiNetDevice/Phy/State/Tx ErpOfdmRate54Mbps ns3::WifiMacHeader (DATA ToDS=0, FromDS=0, MoreFrag=0, Retry=0, MoreData=0 Duration/ID=0us, DA=ff:ff:ff:ff:ff:ff, SA=00:00:00:00:00:11, BSSID=00:00:00:00:00:11, FragNumber=0, SeqNumber=0) ns3::LlcSnapHeader (type 0x800) ns3::Ipv4Header (tos 0x0 DSCP Default ECN Not-ECT ttl 1 id 0 protocol 17 offset (bytes) 0 flags [none] length: 48 10.1.1.17 > 10.1.1.255) ns3::UdpHeader (length: 28 698 > 698) ns3::olsr::PacketHeader () ns3::olsr::MessageHeader () ns3::WifiMacTrailer ()
r 1.20031 ErpOfdmRate54Mbps/NodeList/10/DeviceList/0/$ns3::WifiNetDevice/Phy/State/RxOk ns3::WifiMacHeader (DATA ToDS=0, FromDS=0, MoreFrag=0, Retry=0, MoreData=0 Duration/ID=0us, DA=ff:ff:ff:ff:ff:ff, SA=00:00:00:00:00:11, BSSID=00:00:00:00:00:11, FragNumber=0, SeqNumber=0) ns3::LlcSnapHeader (type 0x800) ns3::Ipv4Header (tos 0x0 DSCP Default ECN Not-ECT ttl 1 id 0 protocol 17 offset (bytes) 0 flags [none] length: 48 10.1.1.17 > 10.1.1.255) ns3::UdpHeader (length: 28 698 > 698) ns3::olsr::PacketHeader () ns3::olsr::MessageHeader () ns3::WifiMacTrailer ()
r 1.20031 ErpOfdmRate54Mbps/NodeList/15/DeviceList/0/$ns3::WifiNetDevice/Phy/State/RxOk ns3::WifiMacHeader (DATA ToDS=0, FromDS=0, MoreFrag=0, Retry=0, MoreData=0 Duration/ID=0us, DA=ff:ff:ff:ff:ff:ff, SA=00:00:00:00:00:11, BSSID=00:00:00:00:00:11, FragNumber=0, SeqNumber=0) ns3::LlcSnapHeader (type 0x800) ns3::Ipv4Header (tos 0x0 DSCP Default ECN Not-ECT ttl 1 id 0 protocol 17 offset (bytes) 0 flags [none] length: 48 10.1.1.17 > 10.1.1.255) ns3::UdpHeader (length: 28 698 > 698) ns3::olsr::PacketHeader () ns3::olsr::MessageHeader () ns3::WifiMacTrailer ()